<configuration xmlns:xsi="http://www.w3.org/2001/XMLSchema-instance" xsi:noNamespaceSchemaLocation="http://sumo.sf.net/xsd/sumoConfiguration.xsd">
    <input>
        <net-file value="hetnet.net.xml" />
    	<route-files value="hetnet.rou.xml" />
	<additional-files value="vtype.xml" /></input>
    <processing>
	<ignore-route-errors value="true" />
    </processing>
<!--
    <output>

	<fcd-output.geo value="true" />
	<fcd-output.signals value="true" />
	<vehroute-output.route-length value="true" />
	<vehroute-output.cost value="true" />	
	<fcd-output.distance value="true" />
    <fcd-output value="/root/Desktop/MSWIM/Revista/sim_files/RandomTrips/0_0/outputs/Hospitalet_SanAdria_fcd_0.xml" /><emission-output value="/root/Desktop/MSWIM/Revista/sim_files/RandomTrips/0_0/outputs/Hospitalet_SanAdria_emission_0.xml" /><summary-output value="/root/Desktop/MSWIM/Revista/sim_files/RandomTrips/0_0/outputs/Hospitalet_SanAdria_summary_0.xml" /><tripinfo-output value="/root/Desktop/MSWIM/Revista/sim_files/RandomTrips/0_0/outputs/Hospitalet_SanAdria_tripinfo_0.xml" /></output>
-->
    <time>
        <begin value="0" />
        <end value="500" />
        <step-length value="1" />
    </time>
      <gui_only>
    <gui-settings-file value="gui-settings.xml"/>
   </gui_only>
    
</configuration>
